
                                 *****************
                                 * O   R   C   A *
                                 *****************

                                            #,                                       
                                            ###                                      
                                            ####                                     
                                            #####                                    
                                            ######                                   
                                           ########,                                 
                                     ,,################,,,,,                         
                               ,,#################################,,                 
                          ,,##########################################,,             
                       ,#########################################, ''#####,          
                    ,#############################################,,   '####,        
                  ,##################################################,,,,####,       
                ,###########''''           ''''###############################       
              ,#####''   ,,,,##########,,,,          '''####'''          '####       
            ,##' ,,,,###########################,,,                        '##       
           ' ,,###''''                  '''############,,,                           
         ,,##''                                '''############,,,,        ,,,,,,###''
      ,#''                                            '''#######################'''  
     '                                                          ''''####''''         
             ,#######,   #######,   ,#######,      ##                                
            ,#'     '#,  ##    ##  ,#'     '#,    #''#        ,####,   ,####,        
            ##       ##  ##   ,#'  ##            #'  '#       #'       #'  '#        
            ##       ##  #######   ##           ,######,      #####,   #    #        
            '#,     ,#'  ##    ##  '#,     ,#' ,#      #,     #,   #   #,  ,#        
             '#######'   ##     ##  '#######'  #'      '#     '####' # '####'        



                #########################################################
                #                        -***-                          #
                #          Department of theory and spectroscopy        #
                #                                                       #
                #                      Frank Neese                      #
                #                                                       #
                #     Directorship, Architecture, Infrastructure        #
                #                    SHARK, DRIVERS                     #
                #        Core code/Algorithms in most modules           #
                #                                                       #
                #        Max Planck Institute fuer Kohlenforschung      #
                #                Kaiser Wilhelm Platz 1                 #
                #                 D-45470 Muelheim/Ruhr                 #
                #                      Germany                          #
                #                                                       #
                #                  All rights reserved                  #
                #                        -***-                          #
                #########################################################


                         Program Version 6.0.1  -  RELEASE   -


 With contributions from (in alphabetic order):
[Max-Planck-Institut fuer Kohlenforschung]                               
  Daniel Aravena         : Magnetic Suceptibility                        
  Michael Atanasov       : Ab Initio Ligand Field Theory (pilot matlab implementation)
  Alexander A. Auer      : GIAO ZORA, VPT2 properties, NMR spectrum      
  Ute Becker             : All parallelization in ORCA, NUMFREQ, NUMCALC 
  Giovanni Bistoni       : ED, misc. LED, open-shell LED, HFLD           
  Martin Brehm           : Molecular dynamics                            
  Dmytro Bykov           : pre 5.0 version of the SCF Hessian            
  Marcos Casanova-Páez   : Triplet and SCS-CIS(D). UHF-(DLPNO)-IP/EA/STEOM-CCSD. UHF-CVS-IP/STEOM-CCSD   
  Vijay G. Chilkuri      : MRCI spin determinant printing, contributions to CSF-ICE 
  Pauline Colinet        : FMM embedding                                 
  Dipayan Datta          : RHF DLPNO-CCSD density                        
  Achintya Kumar Dutta   : EOM-CC, STEOM-CC                              
  Nicolas Foglia         : Exact transition moments, OPA infrastructure, MCD improvements    
  Dmitry Ganyushin       : Spin-Orbit,Spin-Spin,Magnetic field MRCI      
  Miquel Garcia-Rates    : C-PCM and meta-GGA Hessian, CCSD/C-PCM, Gaussian charge scheme 
  Tiago L. C. Gouveia    : GS-ROHF, GS-ROCIS                             
  Yang Guo               : DLPNO-NEVPT2, F12-NEVPT2, CIM, IAO-localization        
  Andreas Hansen         : Spin unrestricted coupled pair/coupled cluster methods 
  Ingolf Harden          : AUTO-CI MPn and infrastructure                
  Benjamin Helmich-Paris : MC-RPA, TRAH-(SCF,CASSCF), AVAS, COSX integrals, SCF dyn. polar. 
  Lee Huntington         : MR-EOM, pCC                                   
  Robert Izsak           : Overlap fitted RIJCOSX, COSX-SCS-MP3, EOM     
  Riya Kayal             : Wick's Theorem for AUTO-CI, AUTO-CI UHF-CCSDT 
  Emily Kempfer          : AUTO-CI, RHF CISDT and CCSDT                  
  Christian Kollmar      : KDIIS, OOCD, Brueckner-CCSD(T), CCSD density, CASPT2, CASPT2-K, improved NEVPT2 
  Axel Koslowski         : Symmetry handling                             
  Simone Kossmann        : meta-GGA functionals, TD-DFT gradient, OOMP2, (MP2 Hessian; deprecated post 5.0) 
  Lucas Lang             : DCDCAS                                        
  Marvin Lechner         : AUTO-CI (C++ implementation), FIC-MRCC        
  Spencer Leger          : CASSCF response                               
  Dagmar Lenk            : GEPOL surface, SMD, ORCA-2-JSON               
  Dimitrios Liakos       : Extrapolation schemes; Compound Job, initial MDCI parallelization 
  Dimitrios Manganas     : Further ROCIS development; embedding schemes. LFT, Crystal Embedding 
  Dimitrios Pantazis     : SARC Basis sets                               
  Anastasios Papadopoulos: AUTO-CI, single reference methods and gradients 
  Taras Petrenko         : pre 6.0 DFT Hessian and TD-DFT gradient, (ASA, deprecated), ECA, 1-Electron XAS/XES, NRVS 
  Peter Pinski           : DLPNO-MP2, DLPNO-MP2 Gradient                 
  Christoph Reimann      : Effective Core Potentials                     
  Marius Retegan         : Local ZFS, SOC                                
  Christoph Riplinger    : Optimizer, TS searches, QM/MM, DLPNO-CCSD(T), (RO)-DLPNO pert. Triples 
  Michael Roemelt        : Original ROCIS implementation                 
  Masaaki Saitow         : Open-shell DLPNO-CCSD energy and density      
  Barbara Sandhoefer     : DKH picture change effects                    
  Kantharuban Sivalingam : CASSCF convergence/infrastructure, NEVPT2 and variants, FIC-MRCI 
  Bernardo de Souza      : ESD, SOC TD-DFT                               
  Georgi L. Stoychev     : AutoAux, RI-MP2 NMR, DLPNO-MP2 response, X2C  
  Van Anh Tran           : RI-MP2 g-tensors                              
  Willem Van den Heuvel  : Paramagnetic NMR                              
  Zikuan Wang            : NOTCH, Electric field optimization            
  Frank Wennmohs         : Technical directorship and infrastructure     
  Hang Xu                : AUTO-CI-Response properties                   
                                                                         
[FACCTs GmbH]                                                            
  Markus Bursch, Miquel Garcia-Rates, Christoph Riplinger, Bernardo de Souza, Georgi L. Stoychev 
                                                                 
  APM, Basis sets (HGBS, AHGBS, def-TZVP (Ac-Lr), def2-XVPD (La-Lu)), CI-OPT, improved COSX, DLPNO-Multilevel,           
  DOCKER, DRACO, updates on ESD, GOAT, IRC, LR-CPCM, MBIS, meta-GGA TD-DFT gradient, ML-optimized integration grids, 
  MM, NACMEs, nearIR, NEB, NEB-TS, NL-DFT gradient (VV10), 2- and 3-layer-ONIOM, interface openCOSMO-RS, QMMM,   
  Crystal-QMMM, SF, symmetry and pop. for TD-DFT, r2SCAN hybrids, SOLVATOR                                   
                                                                         
[Other institutions]                                                     
  V. Asgeirsson          : NEB                                           
  Christoph Bannwarth    : sTDA-DFT, sTD-DFT, PBEh-3c, B97-3c, D3        
  Sebastian Ehlert       : rSCAN, r2SCAN, r2SCAN-3c, D4, dhf basis sets  
  Marvin Friede          : D4 for Fr, Ra, Ac-Lr                          
  Lars Goerigk           : TD-DFT with DH, B97 family of functionals     
  Stefan Grimme          : VdW corrections, initial TS optimization, DFT functionals, gCP, sTDA/sTD-DF 
  Waldemar Hujo          : DFT-NL                                        
  H. Jonsson             : NEB                                           
  Holger Kruse           : gCP                                           
  Marcel Mueller         : wB97X-3c, vDZP basis set                      
  Hagen Neugebauer       : wr2SCAN                                       
  Tobias Risthaus        : range-separated hybrid DFT                    
  Lukas Wittmann         : regularized MP2, r2SCAN double-hybrids, wr2SCAN        
                                                                         
We gratefully acknowledge several colleagues who have allowed us to      
interface, adapt or use parts of their codes:                            
  Ed Valeev, F. Pavosevic, A. Kumar             : LibInt (2-el integral package), F12 methods 
  Garnet Chan, S. Sharma, J. Yang, R. Olivares  : DMRG                   
  Ulf Ekstrom                                   : XCFun DFT Library      
  Mihaly Kallay                                 : mrcc  (arbitrary order and MRCC methods)
  Frank Weinhold                                : gennbo (NPA and NBO analysis)           
  Simon Mueller                                 : openCOSMO-RS                            
  Christopher J. Cramer and Donald G. Truhlar   : smd solvation model                     
  S Lehtola, MJT Oliveira, MAL Marques          : LibXC Library                           
  Liviu Ungur et al                             : ANISO software                          


 Your calculation uses the libint2 library for the computation of 2-el integrals
 For citations please refer to: http://libint.valeyev.net

 Your ORCA version has been built with support for libXC version: 6.2.2
 For citations please refer to: https://libxc.gitlab.io

 This ORCA versions uses:
   CBLAS   interface :  Fast vector & matrix operations
   LAPACKE interface :  Fast linear algebra routines
   SCALAPACK package :  Parallel linear algebra routines
   Shared memory     :  Shared parallel matrices
   BLAS/LAPACK       :  OpenBLAS 0.3.27  USE64BITINT DYNAMIC_ARCH NO_AFFINITY Haswell SINGLE_THREADED
        Core in use  :  Haswell
   Copyright (c) 2011-2014, The OpenBLAS Project


NOTE: MaxCore=16384 MB was set to SCF,MP2,MDCI,CIPSI,MRCI and CIS
      => If you want to overwrite this, your respective input block should be placed after the MaxCore statement
Warning: RI is on but no J-basis has been assigned. Assigning Def2/J (nothing to worry about!)
================================================================================

----- Orbital basis set information -----
Your calculation utilizes the basis: def2-TZVP
   F. Weigend and R. Ahlrichs, Phys. Chem. Chem. Phys. 7, 3297 (2005).

----- AuxJ basis set information -----
Your calculation utilizes the auxiliary basis: def2/J
   F. Weigend, Phys. Chem. Chem. Phys. 8, 1057 (2006).

================================================================================
                                        WARNINGS
                       Please study these warnings very carefully!
================================================================================


WARNING: Geometry Optimization
  ===> : Switching off AutoStart
         For restart on a previous wavefunction, please use MOREAD

================================================================================
                                       INPUT FILE
================================================================================
NAME = Aspartic_Acid.inp
|  1> # avogadro generated ORCA file
|  2> # C2H3O2 | Geometry Optimization | revPBE/def2-TZVP
|  3> # 
|  4> ! Opt revPBE def2-TZVP 
|  5> 
|  6> %maxcore 16384
|  7> 
|  8> %pal
|  9>    nprocs 1
| 10> end
| 11> 
| 12> * xyz -1 1
| 13>    H     -0.867347   -0.232248   -1.357935
| 14>    C     -0.753741    0.357350   -0.443299
| 15>    H     -0.481411    1.382273   -0.712489
| 16>    H     -1.716999    0.380240    0.075439
| 17>    C      0.331008   -0.250617    0.428802
| 18>    O     -0.043626   -0.620321    1.576013
| 19>    O      1.472416   -0.307879   -0.108921
| 20> *
| 21> 
| 22> 
| 23> 
| 24>                          ****END OF INPUT****
================================================================================

                       *****************************
                       * Geometry Optimization Run *
                       *****************************

Geometry optimization settings:
Update method            Update   .... BFGS
Choice of coordinates    CoordSys .... (2022) Redundant Internals
Initial Hessian          InHess   .... Almloef's Model
Max. no of cycles        MaxIter  .... 50

Convergence Tolerances:
Energy Change            TolE     ....  5.0000e-06 Eh
Max. Gradient            TolMAXG  ....  3.0000e-04 Eh/bohr
RMS Gradient             TolRMSG  ....  1.0000e-04 Eh/bohr
Max. Displacement        TolMAXD  ....  4.0000e-03 bohr
RMS Displacement         TolRMSD  ....  2.0000e-03 bohr
Strict Convergence                .... False

------------------------------------------------------------------------------
                        ORCA OPTIMIZATION COORDINATE SETUP
------------------------------------------------------------------------------

The optimization will be done in redundant internal coordinates (2022)
Making redundant internal coordinates   ...  (2022 redundants) done
Evaluating the initial hessian          ...  (Almloef) done
Evaluating the coordinates              ...  done
Calculating the B-matrix                .... done
Calculating the G-matrix                .... done
Diagonalizing the G-matrix              .... done
The first mode is                       ....    5
The number of degrees of freedom        ....   15

    -----------------------------------------------------------------
                    Redundant Internal Coordinates


    -----------------------------------------------------------------
         Definition                    Initial Value    Approx d2E/dq
    -----------------------------------------------------------------
      1. B(C   1,H   0)                  1.0941         0.354695   
      2. B(H   2,C   1)                  1.0941         0.354693   
      3. B(H   3,C   1)                  1.0943         0.354464   
      4. B(C   4,C   1)                  1.5188         0.389214   
      5. B(O   5,C   4)                  1.2622         0.894927   
      6. B(O   6,C   4)                  1.2630         0.892181   
      7. A(H   0,C   1,H   3)          108.4302         0.289433   
      8. A(H   0,C   1,C   4)          109.7825         0.325702   
      9. A(H   0,C   1,H   2)          108.9638         0.289462   
     10. A(H   2,C   1,C   4)          109.7839         0.325701   
     11. A(H   3,C   1,C   4)          111.3990         0.325667   
     12. A(H   2,C   1,H   3)          108.4293         0.289433   
     13. A(C   1,C   4,O   5)          115.2867         0.423676   
     14. A(O   5,C   4,O   6)          129.9345         0.489477   
     15. A(C   1,C   4,O   6)          114.7789         0.423443   
     16. D(O   5,C   4,C   1,H   2)    120.1476         0.011273   
     17. D(O   5,C   4,C   1,H   3)      0.0285         0.011273   
     18. D(O   6,C   4,C   1,H   0)     59.9090         0.011273   
     19. D(O   6,C   4,C   1,H   2)    -59.8526         0.011273   
     20. D(O   5,C   4,C   1,H   0)   -120.0908         0.011273   
    -----------------------------------------------------------------

Number of atoms                         .... 7
Number of degrees of freedom            .... 20


         *************************************************************
         *                GEOMETRY OPTIMIZATION CYCLE   1            *
         *************************************************************
---------------------------------
CARTESIAN COORDINATES (ANGSTROEM)
---------------------------------
  H     -0.867347   -0.232248   -1.357935
  C     -0.753741    0.357350   -0.443299
  H     -0.481411    1.382273   -0.712489
  H     -1.716999    0.380240    0.075439
  C      0.331008   -0.250617    0.428802
  O     -0.043626   -0.620321    1.576013
  O      1.472416   -0.307879   -0.108921

----------------------------
CARTESIAN COORDINATES (A.U.)
----------------------------
  NO LB      ZA    FRAG     MASS         X           Y           Z
   0 H     1.0000    0     1.008   -1.639048   -0.438885   -2.566125
   1 C     6.0000    0    12.011   -1.424364    0.675294   -0.837714
   2 H     1.0000    0     1.008   -0.909735    2.612117   -1.346409
   3 H     1.0000    0     1.008   -3.244658    0.718549    0.142559
   4 C     6.0000    0    12.011    0.625514   -0.473597    0.810318
   5 O     8.0000    0    15.999   -0.082441   -1.172237    2.978233
   6 O     8.0000    0    15.999    2.782463   -0.581807   -0.205831

--------------------------------
INTERNAL COORDINATES (ANGSTROEM)
--------------------------------
 H      0   0   0     0.000000000000     0.00000000     0.00000000
 C      1   0   0     1.094116601344     0.00000000     0.00000000
 H      2   1   0     1.094117928255   108.96379943     0.00000000
 H      2   1   3     1.094293854185   108.43019084   117.83051479
 C      2   1   3     1.518836535079   109.78253934   239.73911307
 O      5   2   1     1.262190461100   115.28666997   239.90921630
 O      5   2   1     1.263026992521   114.77886790    59.90903111

---------------------------
INTERNAL COORDINATES (A.U.)
---------------------------
 H      0   0   0     0.000000000000     0.00000000     0.00000000
 C      1   0   0     2.067580735116     0.00000000     0.00000000
 H      2   1   0     2.067583242615   108.96379943     0.00000000
 H      2   1   3     2.067915694444   108.43019084   117.83051479
 C      2   1   3     2.870185093493   109.78253934   239.73911307
 O      5   2   1     2.385194300328   115.28666997   239.90921630
 O      5   2   1     2.386775115615   114.77886790    59.90903111

---------------------
BASIS SET INFORMATION
---------------------
There are 3 groups of distinct atoms

 Group   1 Type H   : 5s1p contracted to 3s1p pattern {311/1}
 Group   2 Type C   : 11s6p2d1f contracted to 5s3p2d1f pattern {62111/411/11/1}
 Group   3 Type O   : 11s6p2d1f contracted to 5s3p2d1f pattern {62111/411/11/1}

Atom   0H    basis set group =>   1
Atom   1C    basis set group =>   2
Atom   2H    basis set group =>   1
Atom   3H    basis set group =>   1
Atom   4C    basis set group =>   2
Atom   5O    basis set group =>   3
Atom   6O    basis set group =>   3
---------------------------------
AUXILIARY/J BASIS SET INFORMATION
---------------------------------
There are 3 groups of distinct atoms

 Group   1 Type H   : 5s2p1d contracted to 3s1p1d pattern {311/2/1}
 Group   2 Type C   : 12s5p4d2f1g contracted to 6s4p3d1f1g pattern {711111/2111/211/2/1}
 Group   3 Type O   : 12s5p4d2f1g contracted to 6s4p3d1f1g pattern {711111/2111/211/2/1}

Atom   0H    basis set group =>   1
Atom   1C    basis set group =>   2
Atom   2H    basis set group =>   1
Atom   3H    basis set group =>   1
Atom   4C    basis set group =>   2
Atom   5O    basis set group =>   3
Atom   6O    basis set group =>   3
------------------------------------------------------------------------------
                             ORCA STARTUP CALCULATIONS
                           -- RI-GTO INTEGRALS CHOSEN --
------------------------------------------------------------------------------
------------------------------------------------------------------------------
                   ___                                                        
                  /   \      - P O W E R E D   B Y -                         
                 /     \                                                     
                 |  |  |   _    _      __       _____    __    __             
                 |  |  |  | |  | |    /  \     |  _  \  |  |  /  |          
                  \  \/   | |  | |   /    \    | | | |  |  | /  /          
                 / \  \   | |__| |  /  /\  \   | |_| |  |  |/  /          
                |  |  |   |  __  | /  /__\  \  |    /   |      \           
                |  |  |   | |  | | |   __   |  |    \   |  |\   \          
                \     /   | |  | | |  |  |  |  | |\  \  |  | \   \       
                 \___/    |_|  |_| |__|  |__|  |_| \__\ |__|  \__/        
                                                                              
                      - O R C A' S   B I G   F R I E N D -                    
                                      &                                       
                       - I N T E G R A L  F E E D E R -                       
                                                                              
 v1 FN, 2020, v2 2021, v3 2022-2024                                           
------------------------------------------------------------------------------


----------------------
SHARK INTEGRAL PACKAGE
----------------------

Number of atoms                             ...      7
Number of basis functions                   ...    142
Number of shells                            ...     56
Maximum angular momentum                    ...      3
Integral batch strategy                     ... SHARK/LIBINT Hybrid
RI-J (if used) integral strategy            ... SPLIT-RIJ (Revised 2003 algorithm where possible)
Printlevel                                  ...      1
Contraction scheme used                     ... SEGMENTED contraction
Prescreening option                         ... SCHWARTZ
   Thresh                                   ... 2.500e-11
   Tcut                                     ... 2.500e-12
   Tpresel                                  ... 2.500e-12 
Coulomb Range Separation                    ... NOT USED
Exchange Range Separation                   ... NOT USED
Multipole approximations                    ... NOT USED
Finite Nucleus Model                        ... NOT USED
CABS basis                                  ... NOT available
Auxiliary Coulomb fitting basis             ... AVAILABLE
   # of basis functions in Aux-J            ...    229
   # of shells in Aux-J                     ...     75
   Maximum angular momentum in Aux-J        ...      4
Auxiliary J/K fitting basis                 ... NOT available
Auxiliary Correlation fitting basis         ... NOT available
Auxiliary 'external' fitting basis          ... NOT available

Checking pre-screening integrals            ... done (  0.0 sec) Dimension = 56
Check shell pair data                       ... done (  0.0 sec)
Shell pair information
Shell pair cut-off parameter TPreSel        ...   2.5e-12
Total number of shell pairs                 ...      1596
Shell pairs after pre-screening             ...      1568
Total number of primitive shell pairs       ...      4948
Primitive shell pairs kept                  ...      3998
          la=0 lb=0:    412 shell pairs
          la=1 lb=0:    434 shell pairs
          la=1 lb=1:    120 shell pairs
          la=2 lb=0:    228 shell pairs
          la=2 lb=1:    120 shell pairs
          la=2 lb=2:     36 shell pairs
          la=3 lb=0:    116 shell pairs
          la=3 lb=1:     60 shell pairs
          la=3 lb=2:     32 shell pairs
          la=3 lb=3:     10 shell pairs

Calculating one electron integrals          ... done (  0.0 sec)
Calculating RI/J V-Matrix + Cholesky decomp.... done (  0.0 sec)
Calculating Nuclear repulsion               ... done (  0.0 sec) ENN=    112.169841812106 Eh

Diagonalization of the overlap matrix:
Smallest eigenvalue                        ... 5.510e-04
Time for diagonalization                   ...    0.002 sec
Threshold for overlap eigenvalues          ... 1.000e-07
Number of eigenvalues below threshold      ... 0
Time for construction of square roots      ...    0.000 sec
Total time needed                          ...    0.003 sec

-------------------
DFT GRID GENERATION
-------------------

General Integration Accuracy     IntAcc      ... 4.388
Radial Grid Type                 RadialGrid  ... OptM3 with GC (2021)
Angular Grid (max. ang.)         AngularGrid ... 4 (Lebedev-302)
Angular grid pruning method      GridPruning ... 4 (adaptive)
Weight generation scheme         WeightScheme... mBecke (2022)
Basis function cutoff            BFCut       ... 1.0000e-11
Integration weight cutoff        WCut        ... 1.0000e-14
Partially contracted basis set               ... off
Rotationally invariant grid construction     ... off
Angular grids for H and He will be reduced by one unit

Total number of grid points                  ...    34167
Total number of batches                      ...      538
Average number of points per batch           ...       63
Average number of grid points per atom       ...     4881
Initializing property integral containers    ... done (  0.0 sec)

SHARK setup successfully completed in   0.3 seconds

Maximum memory used throughout the entire STARTUP-calculation: 18.7 MB
-------------------------------------------------------------------------------
                                 ORCA GUESS
                   Start orbitals & Density for SCF / CASSCF
-------------------------------------------------------------------------------

------------
SCF SETTINGS
------------
Hamiltonian:
 Density Functional     Method          .... DFT(GTOs)
 Exchange Functional    Exchange        .... PBE
   PBE kappa parameter   XKappa         ....  1.245000
   PBE mue parameter    XMuePBE         ....  0.219520
 Correlation Functional Correlation     .... PBE
   PBE beta parameter  CBetaPBE         ....  0.066725
 LDA part of GGA corr.  LDAOpt          .... PW91-LDA
 Gradients option       PostSCFGGA      .... off
   NL short-range parameter             ....  3.700000
 RI-approximation to the Coulomb term is turned on
   Number of AuxJ basis functions       .... 229


General Settings:
 Integral files         IntName         .... Aspartic_Acid
 Hartree-Fock type      HFTyp           .... RHF
 Total Charge           Charge          ....   -1
 Multiplicity           Mult            ....    1
 Number of Electrons    NEL             ....   32
 Basis Dimension        Dim             ....  142
 Nuclear Repulsion      ENuc            ....    112.1698418121 Eh

Convergence Acceleration:
 AO-DIIS                CNVDIIS         .... on
   Start iteration      DIISMaxIt       ....    12
   Startup error        DIISStart       ....  0.200000
   # of expansion vecs  DIISMaxEq       ....     5
   Bias factor          DIISBfac        ....   1.050
   Max. coefficient     DIISMaxC        ....  10.000
 MO-DIIS                CNVKDIIS        .... off
 Trust-Rad. Augm. Hess. CNVTRAH         .... auto
   Auto Start mean grad. ratio tolernc. ....  1.125000
   Auto Start start iteration           ....    50
   Auto Start num. interpolation iter.  ....    10
   Max. Number of Micro iterations      ....    24
   Max. Number of Macro iterations      .... Maxiter - #DIIS iter
   Number of Davidson start vectors     ....     2
   Converg. threshold    (grad. norm)   ....   1.000e-05
   Grad. Scal. Fac. for Micro threshold ....   0.100
   Minimum threshold for Micro iter.    ....   1.000e-02
   NR start threshold (gradient norm)   ....   1.000e-04
   Initial trust radius                 ....   0.400
   Minimum AH scaling param. (alpha)    ....   1.000
   Maximum AH scaling param. (alpha)    .... 1000.000
   Quad. conv. algorithm                .... NR
   White noise on init. David. guess    .... on
   Maximum white noise                  ....   0.010
   Pseudo random numbers                .... off
   Inactive MOs                         .... canonical
   Orbital update algorithm             .... Taylor
   Preconditioner                       .... Diag
   Full preconditioner red. dimension   ....   250
 SOSCF                  CNVSOSCF        .... on
   Start iteration      SOSCFMaxIt      ....   150
   Startup grad/error   SOSCFStart      ....  0.003300
   Hessian update       SOSCFHessUp     .... L-BFGS
 Level Shifting         CNVShift        .... on
   Level shift para.    LevelShift      ....    0.2500
   Turn off err/grad.   ShiftErr        ....    0.0010
 Zerner damping         CNVZerner       .... off
 Static damping         CNVDamp         .... on
   Fraction old density DampFac         ....    0.7000
   Max. Damping (<1)    DampMax         ....    0.9800
   Min. Damping (>=0)   DampMin         ....    0.0000
   Turn off err/grad.   DampErr         ....    0.1000

SCF Procedure:
 Maximum # iterations   MaxIter         ....   125
 SCF integral mode      SCFMode         .... Direct
   Integral package                     .... SHARK and LIBINT hybrid scheme
 Reset frequency        DirectResetFreq ....    20
 Integral Threshold     Thresh          ....  2.500e-11 Eh
 Primitive CutOff       TCut            ....  2.500e-12 Eh

Convergence Tolerance:
 Convergence Check Mode ConvCheckMode   .... Total+1el-Energy
 Convergence forced     ConvForced      .... 0
 Energy Change          TolE            ....  1.000e-08 Eh
 1-El. energy change                    ....  1.000e-05 Eh
 Orbital Gradient       TolG            ....  1.000e-05
 Orbital Rotation angle TolX            ....  1.000e-05
 DIIS Error             TolErr          ....  5.000e-07

------------------------------
INITIAL GUESS: MODEL POTENTIAL
------------------------------
Loading Hartree-Fock densities                     ... done
Calculating cut-offs                               ... done
Initializing the effective Hamiltonian             ... done
Setting up the integral package (SHARK)            ... done
Starting the Coulomb interaction                   ... done (   0.0 sec)
Making the grid                                    ... done (   0.0 sec)
Mapping shells                                     ... done
Starting the XC term evaluation                    ... done (   0.1 sec)
  promolecular density results
     # of electrons  =     30.998685601
     EX              =    -27.527854635
     EC              =     -1.019274439
     EX+EC           =    -28.547129075
Transforming the Hamiltonian                       ... done (   0.0 sec)
Diagonalizing the Hamiltonian                      ... done (   0.0 sec)
Back transforming the eigenvectors                 ... done (   0.0 sec)
Now organizing SCF variables                       ... done
                      ------------------
                      INITIAL GUESS DONE (   0.2 sec)
                      ------------------
             **** ENERGY FILE WAS UPDATED (Aspartic_Acid.en.tmp) ****
Finished Guess after   0.2 sec
Maximum memory used throughout the entire GUESS-calculation: 11.9 MB

-------------------------------------------------------------------------------------------
                                      ORCA LEAN-SCF
                              memory conserving SCF solver
-------------------------------------------------------------------------------------------

----------------------------------------D-I-I-S--------------------------------------------
Iteration    Energy (Eh)           Delta-E    RMSDP     MaxDP     DIISErr   Damp  Time(sec)
-------------------------------------------------------------------------------------------
               ***  Starting incremental Fock matrix formation  ***
    1    -228.2883812848833713     0.00e+00  9.25e-03  5.45e-01  3.17e-01  0.700   0.3
Warning: op=0 Small HOMO/LUMO gap (   0.082) - skipping pre-diagonalization
         Will do a full diagonalization
    2    -228.4223714808939576    -1.34e-01  1.23e-02  8.58e-01  1.09e-01  0.700   0.3
                               ***Turning on AO-DIIS***
    3    -228.4624318093053148    -4.01e-02  4.29e-03  2.82e-01  3.10e-02  0.700   0.3
    4    -228.4871483432630157    -2.47e-02  2.85e-03  7.86e-02  1.17e-02  0.000   0.3
    5    -228.5467714082369071    -5.96e-02  4.45e-03  3.26e-01  1.48e-02  0.000   0.3
                              *** Initializing SOSCF ***
---------------------------------------S-O-S-C-F--------------------------------------
Iteration    Energy (Eh)           Delta-E    RMSDP     MaxDP     MaxGrad    Time(sec)
--------------------------------------------------------------------------------------
    6    -228.5478405129576345    -1.07e-03  2.12e-03  1.56e-01  3.29e-03     0.3
               *** Restarting incremental Fock matrix formation ***
    7    -228.5479587039668559    -1.18e-04  2.39e-03  1.76e-01  1.20e-03     0.3
    8    -228.5479751275878471    -1.64e-05  2.09e-04  1.48e-02  7.00e-04     0.3
    9    -228.5479820182853246    -6.89e-06  4.88e-04  3.55e-02  4.68e-04     0.3
   10    -228.5479817798188265     2.38e-07  1.53e-04  1.09e-02  6.87e-04     0.3
   11    -228.5479839525802390    -2.17e-06  3.25e-04  2.39e-02  2.29e-04     0.3
   12    -228.5479851409319281    -1.19e-06  8.99e-05  6.53e-03  6.32e-05     0.3
   13    -228.5479852340817501    -9.31e-08  1.18e-05  8.68e-04  2.78e-05     0.3
   14    -228.5479852407006547    -6.62e-09  1.72e-05  1.26e-03  2.09e-05     0.3
                 **** Energy Check signals convergence ****

               *****************************************************
               *                     SUCCESS                       *
               *           SCF CONVERGED AFTER  14 CYCLES          *
               *****************************************************

             **** ENERGY FILE WAS UPDATED (Aspartic_Acid.en.tmp) ****

----------------
TOTAL SCF ENERGY
----------------

Total Energy       :       -228.54798524070065 Eh           -6219.10685 eV

Components:
Nuclear Repulsion  :        112.16984181210609 Eh            3052.29657 eV
Electronic Energy  :       -340.71782705280674 Eh           -9271.40342 eV
One Electron Energy:       -541.98963340994487 Eh          -14748.28771 eV
Two Electron Energy:        201.27180635713813 Eh            5476.88429 eV

Virial components:
Potential Energy   :       -456.41074082481299 Eh          -12419.56766 eV
Kinetic Energy     :        227.86275558411234 Eh            6200.46080 eV
Virial Ratio       :          2.00300720341432

DFT components:
N(Alpha)           :       16.000000661702 electrons
N(Beta)            :       16.000000661702 electrons
N(Total)           :       32.000001323404 electrons
E(X)               :      -28.280887133298 Eh       
E(C)               :       -1.060164653862 Eh       
E(XC)              :      -29.341051787160 Eh       

---------------
SCF CONVERGENCE
---------------

  Last Energy change         ...    6.6189e-09  Tolerance :   1.0000e-08
  Last MAX-Density change    ...    1.2555e-03  Tolerance :   1.0000e-07
  Last RMS-Density change    ...    1.7161e-05  Tolerance :   5.0000e-09
  Last DIIS Error            ...    3.2924e-03  Tolerance :   5.0000e-07
  Last Orbital Gradient      ...    2.0920e-05  Tolerance :   1.0000e-05
  Last Orbital Rotation      ...    5.9036e-05  Tolerance :   1.0000e-05


----------------
ORBITAL ENERGIES
----------------

  NO   OCC          E(Eh)            E(eV) 
   0   2.0000     -18.482598      -502.9371 
   1   2.0000     -18.481292      -502.9015 
   2   2.0000      -9.751566      -265.3536 
   3   2.0000      -9.694498      -263.8007 
   4   2.0000      -0.712573       -19.3901 
   5   2.0000      -0.632313       -17.2061 
   6   2.0000      -0.456938       -12.4339 
   7   2.0000      -0.238507        -6.4901 
   8   2.0000      -0.196472        -5.3463 
   9   2.0000      -0.179991        -4.8978 
  10   2.0000      -0.157328        -4.2811 
  11   2.0000      -0.120960        -3.2915 
  12   2.0000      -0.102914        -2.8004 
  13   2.0000       0.003253         0.0885 
  14   2.0000       0.022750         0.6191 
  15   2.0000       0.031743         0.8638 
  16   0.0000       0.192079         5.2267 
  17   0.0000       0.218627         5.9491 
  18   0.0000       0.257363         7.0032 
  19   0.0000       0.278187         7.5698 
  20   0.0000       0.300382         8.1738 
  21   0.0000       0.334590         9.1047 
  22   0.0000       0.375162        10.2087 
  23   0.0000       0.380328        10.3493 
  24   0.0000       0.388060        10.5596 
  25   0.0000       0.430902        11.7254 
  26   0.0000       0.484631        13.1875 
*Only the first 10 virtual orbitals were printed.

                    ********************************
                    * MULLIKEN POPULATION ANALYSIS *
                    ********************************

-----------------------
MULLIKEN ATOMIC CHARGES
-----------------------
   0 H :    0.037333
   1 C :   -0.277259
   2 H :    0.037348
   3 H :    0.030429
   4 C :    0.176301
   5 O :   -0.500192
   6 O :   -0.503959
Sum of atomic charges:   -1.0000000

--------------------------------
MULLIKEN REDUCED ORBITAL CHARGES
--------------------------------
  0 H s       :     0.941642  s :     0.941642
      pz      :     0.009614  p :     0.021025
      px      :     0.005055
      py      :     0.006357

  1 C s       :     3.091776  s :     3.091776
      pz      :     1.053584  p :     3.126602
      px      :     1.049936
      py      :     1.023082
      dz2     :     0.014422  d :     0.055205
      dxz     :     0.009336
      dyz     :     0.008637
      dx2y2   :     0.017623
      dxy     :     0.005187
      f0      :     0.000342  f :     0.003676
      f+1     :     0.000569
      f-1     :     0.000725
      f+2     :     0.000946
      f-2     :     0.000367
      f+3     :     0.000456
      f-3     :     0.000271

  2 H s       :     0.941626  s :     0.941626
      pz      :     0.005583  p :     0.021026
      px      :     0.005318
      py      :     0.010125

  3 H s       :     0.948685  s :     0.948685
      pz      :     0.006253  p :     0.020886
      px      :     0.010051
      py      :     0.004582

  4 C s       :     3.002278  s :     3.002278
      pz      :     0.839066  p :     2.596151
      px      :     0.898080
      py      :     0.859006
      dz2     :     0.049635  d :     0.201965
      dxz     :     0.050014
      dyz     :     0.038598
      dx2y2   :     0.025747
      dxy     :     0.037970
      f0      :     0.003555  f :     0.023305
      f+1     :     0.007201
      f-1     :     0.002116
      f+2     :     0.003843
      f-2     :     0.002425
      f+3     :     0.001632
      f-3     :     0.002534

  5 O s       :     3.752571  s :     3.752571
      pz      :     1.426016  p :     4.719201
      px      :     1.753930
      py      :     1.539255
      dz2     :     0.009703  d :     0.026803
      dxz     :     0.006689
      dyz     :     0.007456
      dx2y2   :     0.001463
      dxy     :     0.001490
      f0      :     0.000490  f :     0.001618
      f+1     :     0.000383
      f-1     :     0.000331
      f+2     :     0.000171
      f-2     :     0.000191
      f+3     :     0.000029
      f-3     :     0.000022

  6 O s       :     3.750048  s :     3.750048
      pz      :     1.690159  p :     4.725588
      px      :     1.454287
      py      :     1.581142
      dz2     :     0.003777  d :     0.026709
      dxz     :     0.008014
      dyz     :     0.001606
      dx2y2   :     0.006632
      dxy     :     0.006679
      f0      :     0.000153  f :     0.001614
      f+1     :     0.000381
      f-1     :     0.000010
      f+2     :     0.000328
      f-2     :     0.000213
      f+3     :     0.000231
      f-3     :     0.000299



                     *******************************
                     * LOEWDIN POPULATION ANALYSIS *
                     *******************************

----------------------
LOEWDIN ATOMIC CHARGES
----------------------
   0 H :    0.100860
   1 C :   -0.346096
   2 H :    0.100851
   3 H :    0.093509
   4 C :   -0.743517
   5 O :   -0.101090
   6 O :   -0.104518

-------------------------------
LOEWDIN REDUCED ORBITAL CHARGES
-------------------------------
  0 H s       :     0.837461  s :     0.837461
      pz      :     0.028406  p :     0.061679
      px      :     0.013771
      py      :     0.019501

  1 C s       :     2.858524  s :     2.858524
      pz      :     1.076727  p :     3.210479
      px      :     1.070391
      py      :     1.063361
      dz2     :     0.049274  d :     0.252561
      dxz     :     0.050462
      dyz     :     0.047453
      dx2y2   :     0.076556
      dxy     :     0.028816
      f0      :     0.003203  f :     0.024532
      f+1     :     0.003153
      f-1     :     0.004634
      f+2     :     0.003921
      f-2     :     0.002977
      f+3     :     0.003781
      f-3     :     0.002862

  2 H s       :     0.837470  s :     0.837470
      pz      :     0.015870  p :     0.061679
      px      :     0.015294
      py      :     0.030515

  3 H s       :     0.845040  s :     0.845040
      pz      :     0.018467  p :     0.061451
      px      :     0.029672
      py      :     0.013312

  4 C s       :     2.782111  s :     2.782111
      pz      :     0.972163  p :     2.790082
      px      :     0.987680
      py      :     0.830238
      dz2     :     0.237008  d :     1.020245
      dxz     :     0.335061
      dyz     :     0.151737
      dx2y2   :     0.132245
      dxy     :     0.164194
      f0      :     0.023680  f :     0.151079
      f+1     :     0.044490
      f-1     :     0.016788
      f+2     :     0.022885
      f-2     :     0.014424
      f+3     :     0.012712
      f-3     :     0.016100

  5 O s       :     3.439651  s :     3.439651
      pz      :     1.486092  p :     4.596495
      px      :     1.650080
      py      :     1.460323
      dz2     :     0.022323  d :     0.059861
      dxz     :     0.016714
      dyz     :     0.015019
      dx2y2   :     0.002798
      dxy     :     0.003006
      f0      :     0.001356  f :     0.005083
      f+1     :     0.001387
      f-1     :     0.001119
      f+2     :     0.000532
      f-2     :     0.000584
      f+3     :     0.000051
      f-3     :     0.000054

  6 O s       :     3.439805  s :     3.439805
      pz      :     1.608312  p :     4.599942
      px      :     1.505196
      py      :     1.486434
      dz2     :     0.009151  d :     0.059687
      dxz     :     0.019359
      dyz     :     0.002750
      dx2y2   :     0.017197
      dxy     :     0.011229
      f0      :     0.000519  f :     0.005083
      f+1     :     0.001213
      f-1     :     0.000013
      f+2     :     0.001255
      f-2     :     0.000484
      f+3     :     0.000889
      f-3     :     0.000709



                      *****************************
                      * MAYER POPULATION ANALYSIS *
                      *****************************

  NA   - Mulliken gross atomic population
  ZA   - Total nuclear charge
  QA   - Mulliken gross atomic charge
  VA   - Mayer's total valence
  BVA  - Mayer's bonded valence
  FA   - Mayer's free valence

  ATOM       NA         ZA         QA         VA         BVA        FA
  0 H      0.9627     1.0000     0.0373     1.0016     1.0016     0.0000
  1 C      6.2773     6.0000    -0.2773     3.5977     3.5977     0.0000
  2 H      0.9627     1.0000     0.0373     1.0016     1.0016     0.0000
  3 H      0.9696     1.0000     0.0304     1.0255     1.0255     0.0000
  4 C      5.8237     6.0000     0.1763     4.7329     4.7329     0.0000
  5 O      8.5002     8.0000    -0.5002     1.9190     1.9190    -0.0000
  6 O      8.5040     8.0000    -0.5040     1.9099     1.9099    -0.0000

  Mayer bond orders larger than 0.100000
B(  0-H ,  1-C ) :   0.9564 B(  1-C ,  2-H ) :   0.9564 B(  1-C ,  3-H ) :   0.9461 
B(  1-C ,  4-C ) :   0.9299 B(  1-C ,  5-O ) :  -0.1161 B(  4-C ,  5-O ) :   1.9016 
B(  4-C ,  6-O ) :   1.8837 

-------
TIMINGS
-------

Total SCF time: 0 days 0 hours 0 min 4 sec 

Total time                  ....       4.250 sec
Sum of individual times     ....       4.216 sec  ( 99.2%)

SCF preparation             ....       0.034 sec  (  0.8%)
Fock matrix formation       ....       4.123 sec  ( 97.0%)
  Startup                   ....       0.002 sec  (  0.1% of F)
  Split-RI-J                ....       0.949 sec  ( 23.0% of F)
  XC integration            ....       3.158 sec  ( 76.6% of F)
    XC Preparation          ....       0.000 sec  (  0.0% of XC)
    Basis function eval.    ....       0.983 sec  ( 31.1% of XC)
    Density eval.           ....       0.655 sec  ( 20.8% of XC)
    XC-Functional eval.     ....       0.172 sec  (  5.4% of XC)
    XC-Potential eval.      ....       1.267 sec  ( 40.1% of XC)
Diagonalization             ....       0.000 sec  (  0.0%)
Density matrix formation    ....       0.009 sec  (  0.2%)
Total Energy calculation    ....       0.001 sec  (  0.0%)
Population analysis         ....       0.004 sec  (  0.1%)
Orbital Transformation      ....       0.006 sec  (  0.2%)
Orbital Orthonormalization  ....       0.000 sec  (  0.0%)
DIIS solution               ....       0.023 sec  (  0.5%)
SOSCF solution              ....       0.015 sec  (  0.4%)
Finished LeanSCF after   4.3 sec

Maximum memory used throughout the entire LEANSCF-calculation: 12.8 MB

-------------------------   --------------------
FINAL SINGLE POINT ENERGY      -228.547985240701
-------------------------   --------------------

------------------------------------------------------------------------------
                         ORCA SCF GRADIENT CALCULATION
------------------------------------------------------------------------------

Nuc. rep. gradient        (SHARK) ... done (  0.0 sec)
HCore & Overlap gradient  (SHARK) ... done (  0.1 sec)
Split-RIJ-J gradient      (SHARK) ... done (  0.4 sec)
XC gradient                       ... done (  1.2 sec)

------------------
CARTESIAN GRADIENT
------------------

   1   H   :   -0.000135645    0.000623635    0.007073967
   2   C   :    0.015890940   -0.006589623    0.007003279
   3   H   :   -0.001458163   -0.005013190    0.004830587
   4   H   :    0.005202068   -0.000466997   -0.001921387
   5   C   :   -0.007574026    0.004561039   -0.006882927
   6   O   :   -0.002605900    0.004794654   -0.010425892
   7   O   :   -0.009319274    0.002090482    0.000322374

Difference to translation invariance:
           :    0.0000000000    0.0000000000    0.0000000000

Difference to rotation invariance:
           :    0.0000075252    0.0000397087   -0.0000692454

Norm of the Cartesian gradient     ...    0.0288504552
RMS gradient                       ...    0.0062956855
MAX gradient                       ...    0.0158909399

-------
TIMINGS
-------

Total SCF gradient time     ....        1.698 sec

Densities                   ....       0.000 sec  (  0.0%)
One electron gradient       ....       0.052 sec  (  3.0%)
RI-J Coulomb gradient       ....       0.408 sec  ( 24.0%)
XC gradient                 ....       1.238 sec  ( 72.9%)

Maximum memory used throughout the entire SCFGRAD-calculation: 17.2 MB
------------------------------------------------------------------------------
                         ORCA GEOMETRY RELAXATION STEP
------------------------------------------------------------------------------

Reading the OPT-File                    .... done
Getting information on internals        .... done
Copying old internal coords+grads       .... done
Making the new internal coordinates     .... (2022 redundants) done
Validating the new internal coordinates .... (2022 redundants) done
Calculating the B-matrix                .... done
Calculating the G,G- and P matrices     .... done
Transforming gradient to internals      .... done
Projecting the internal gradient        .... done
Number of atoms                         ....   7
Number of internal coordinates          ....  20
Current Energy                          ....  -228.547985241 Eh
Current gradient norm                   ....     0.028850455 Eh/bohr
Maximum allowed component of the step   ....  0.300
Current trust radius                    ....  0.300
Evaluating the initial hessian          ....  (Almloef) done
Projecting the Hessian                  .... done
Forming the augmented Hessian           .... done
Diagonalizing the augmented Hessian     .... done
Last element of RFO vector              ....  0.996174538
Lowest eigenvalues of augmented Hessian:
 -0.002922750  0.011272756  0.011272760  0.136173654  0.181756576
Length of the computed step             ....  0.087721439
The final length of the internal step   ....  0.087721439
Converting the step to Cartesian space:
 Initial RMS(Int)=    0.0196151100
Transforming coordinates:
 Iter   0:  RMS(Cart)=    0.0296345100 RMS(Int)=    0.0196088542
done
Storing new coordinates                 .... done

                                .--------------------.
          ----------------------|Geometry convergence|-------------------------
          Item                value                   Tolerance       Converged
          ---------------------------------------------------------------------
          RMS gradient        0.0078123223            0.0001000000      NO
          MAX gradient        0.0282614572            0.0003000000      NO
          RMS step            0.0196151100            0.0020000000      NO
          MAX step            0.0720704738            0.0040000000      NO
          ........................................................
          Max(Bonds)      0.0381      Max(Angles)    1.15
          Max(Dihed)        0.62      Max(Improp)    0.00
          ---------------------------------------------------------------------

The optimization has not yet converged - more geometry cycles are needed


    ---------------------------------------------------------------------------
                         Redundant Internal Coordinates
                            (Angstroem and degrees)

        Definition                    Value    dE/dq     Step     New-Value
    ----------------------------------------------------------------------------
     1. B(C   1,H   0)                1.0941 -0.006234  0.0092    1.1033   
     2. B(H   2,C   1)                1.0941 -0.006249  0.0092    1.1034   
     3. B(H   3,C   1)                1.0943 -0.005500  0.0081    1.1024   
     4. B(C   4,C   1)                1.5188 -0.028261  0.0381    1.5570   
     5. B(O   5,C   4)                1.2622 -0.010107  0.0060    1.2681   
     6. B(O   6,C   4)                1.2630 -0.008654  0.0051    1.2681   
     7. A(H   0,C   1,H   3)          108.43  0.000336    0.16    108.59   
     8. A(H   0,C   1,C   4)          109.78 -0.001438    0.17    109.96   
     9. A(H   0,C   1,H   2)          108.96  0.003808   -1.15    107.81   
    10. A(H   2,C   1,C   4)          109.78 -0.001463    0.18    109.96   
    11. A(H   3,C   1,C   4)          111.40 -0.001411    0.45    111.85   
    12. A(H   2,C   1,H   3)          108.43  0.000341    0.16    108.58   
    13. A(C   1,C   4,O   5)          115.29 -0.006361    0.80    116.09   
    14. A(O   5,C   4,O   6)          129.93  0.008017   -0.98    128.96   
    15. A(C   1,C   4,O   6)          114.78 -0.001656    0.17    114.95   
    16. D(O   5,C   4,C   1,H   2)    120.15 -0.001444    0.60    120.75   
    17. D(O   5,C   4,C   1,H   3)      0.03  0.000004   -0.00      0.03   
    18. D(O   6,C   4,C   1,H   0)     59.91  0.001449   -0.62     59.29   
    19. D(O   6,C   4,C   1,H   2)    -59.85 -0.001438    0.58    -59.28   
    20. D(O   5,C   4,C   1,H   0)   -120.09  0.001442   -0.60   -120.69   
    ----------------------------------------------------------------------------

Geometry step timings:
Preparation and reading OPT file:      0.000 s (11.564 %)
Internal coordinates            :      0.000 s ( 4.295 %)
B/P matrices and projection     :      0.000 s (15.749 %)
Hessian update/contruction      :      0.000 s (12.775 %)
Making the step                 :      0.000 s (11.344 %)
Converting the step to Cartesian:      0.000 s ( 4.185 %)
Storing new data                :      0.000 s ( 3.524 %)
Checking convergence            :      0.000 s ( 0.000 %)
Final printing                  :      0.000 s (35.793 %)
Total time                      :      0.001 s

Time for energy+gradient        :      6.505 s
Time for complete geometry iter :      6.524 s

         *************************************************************
         *                GEOMETRY OPTIMIZATION CYCLE   2            *
         *************************************************************
---------------------------------
CARTESIAN COORDINATES (ANGSTROEM)
---------------------------------
  H     -0.877846   -0.222784   -1.377992
  C     -0.768215    0.363407   -0.449703
  H     -0.491704    1.393644   -0.731781
  H     -1.742116    0.389811    0.066231
  C      0.344133   -0.259689    0.443942
  O     -0.015295   -0.636689    1.600177
  O      1.491343   -0.318903   -0.093265

----------------------------
CARTESIAN COORDINATES (A.U.)
----------------------------
  NO LB      ZA    FRAG     MASS         X           Y           Z
   0 H     1.0000    0     1.008   -1.658889   -0.421001   -2.604028
   1 C     6.0000    0    12.011   -1.451716    0.686740   -0.849815
   2 H     1.0000    0     1.008   -0.929186    2.633606   -1.382865
   3 H     1.0000    0     1.008   -3.292123    0.736636    0.125159
   4 C     6.0000    0    12.011    0.650318   -0.490741    0.838929
   5 O     8.0000    0    15.999   -0.028903   -1.203168    3.023897
   6 O     8.0000    0    15.999    2.818230   -0.602640   -0.176245

--------------------------------
INTERNAL COORDINATES (ANGSTROEM)
--------------------------------
 H      0   0   0     0.000000000000     0.00000000     0.00000000
 C      1   0   0     1.103340698486     0.00000000     0.00000000
 H      2   1   0     1.103364979658   107.81139646     0.00000000
 H      2   1   3     1.102437682101   108.58376872   117.46117312
 C      2   1   3     1.556974587206   109.95417647   240.12566083
 O      5   2   1     1.268147146684   116.09075122   239.30692534
 O      5   2   1     1.268143369533   114.95116520    59.28532116

---------------------------
INTERNAL COORDINATES (A.U.)
---------------------------
 H      0   0   0     0.000000000000     0.00000000     0.00000000
 C      1   0   0     2.085011752548     0.00000000     0.00000000
 H      2   1   0     2.085057637314   107.81139646     0.00000000
 H      2   1   3     2.083305298886   108.58376872   117.46117312
 C      2   1   3     2.942255567294   109.95417647   240.12566083
 O      5   2   1     2.396450804747   116.09075122   239.30692534
 O      5   2   1     2.396443666966   114.95116520    59.28532116

------------------------------------------------------------------------------
                   ___                                                        
                  /   \      - P O W E R E D   B Y -                         
                 /     \                                                     
                 |  |  |   _    _      __       _____    __    __             
                 |  |  |  | |  | |    /  \     |  _  \  |  |  /  |          
                  \  \/   | |  | |   /    \    | | | |  |  | /  /          
                 / \  \   | |__| |  /  /\  \   | |_| |  |  |/  /          
                |  |  |   |  __  | /  /__\  \  |    /   |      \           
                |  |  |   | |  | | |   __   |  |    \   |  |\   \          
                \     /   | |  | | |  |  |  |  | |\  \  |  | \   \       
                 \___/    |_|  |_| |__|  |__|  |_| \__\ |__|  \__/        
                                                                              
                      - O R C A' S   B I G   F R I E N D -                    
                                      &                                       
                       - I N T E G R A L  F E E D E R -                       
                                                                              
 v1 FN, 2020, v2 2021, v3 2022-2024                                           
------------------------------------------------------------------------------


----------------------
SHARK INTEGRAL PACKAGE
----------------------

Number of atoms                             ...      7
Number of basis functions                   ...    142
Number of shells                            ...     56
Maximum angular momentum                    ...      3
Integral batch strategy                     ... SHARK/LIBINT Hybrid
RI-J (if used) integral strategy            ... SPLIT-RIJ (Revised 2003 algorithm where possible)
Printlevel                                  ...      1
Contraction scheme used                     ... SEGMENTED contraction
Prescreening option                         ... SCHWARTZ
   Thresh                                   ... 2.500e-11
   Tcut                                     ... 2.500e-12
   Tpresel                                  ... 2.500e-12 
Coulomb Range Separation                    ... NOT USED
Exchange Range Separation                   ... NOT USED
Multipole approximations                    ... NOT USED
Finite Nucleus Model                        ... NOT USED
CABS basis                                  ... NOT available
Auxiliary Coulomb fitting basis             ... AVAILABLE
   # of basis functions in Aux-J            ...    229
   # of shells in Aux-J                     ...     75
   Maximum angular momentum in Aux-J        ...      4
Auxiliary J/K fitting basis                 ... NOT available
Auxiliary Correlation fitting basis         ... NOT available
Auxiliary 'external' fitting basis          ... NOT available

Checking pre-screening integrals            ... done (  0.0 sec) Dimension = 56
Check shell pair data                       ... done (  0.0 sec)
Shell pair information
Shell pair cut-off parameter TPreSel        ...   2.5e-12
Total number of shell pairs                 ...      1596
Shell pairs after pre-screening             ...      1564
Total number of primitive shell pairs       ...      4948
Primitive shell pairs kept                  ...      3975
          la=0 lb=0:    411 shell pairs
          la=1 lb=0:    432 shell pairs
          la=1 lb=1:    120 shell pairs
          la=2 lb=0:    227 shell pairs
          la=2 lb=1:    120 shell pairs
          la=2 lb=2:     36 shell pairs
          la=3 lb=0:    116 shell pairs
          la=3 lb=1:     60 shell pairs
          la=3 lb=2:     32 shell pairs
          la=3 lb=3:     10 shell pairs

Calculating one electron integrals          ... done (  0.0 sec)
Calculating RI/J V-Matrix + Cholesky decomp.... done (  0.0 sec)
Calculating Nuclear repulsion               ... done (  0.0 sec) ENN=    110.955087618581 Eh

Diagonalization of the overlap matrix:
Smallest eigenvalue                        ... 6.797e-04
Time for diagonalization                   ...    0.002 sec
Threshold for overlap eigenvalues          ... 1.000e-07
Number of eigenvalues below threshold      ... 0
Time for construction of square roots      ...    0.000 sec
Total time needed                          ...    0.002 sec

-------------------
DFT GRID GENERATION
-------------------

General Integration Accuracy     IntAcc      ... 4.388
Radial Grid Type                 RadialGrid  ... OptM3 with GC (2021)
Angular Grid (max. ang.)         AngularGrid ... 4 (Lebedev-302)
Angular grid pruning method      GridPruning ... 4 (adaptive)
Weight generation scheme         WeightScheme... mBecke (2022)
Basis function cutoff            BFCut       ... 1.0000e-11
Integration weight cutoff        WCut        ... 1.0000e-14
Partially contracted basis set               ... off
Rotationally invariant grid construction     ... off
Angular grids for H and He will be reduced by one unit

Total number of grid points                  ...    34189
Total number of batches                      ...      537
Average number of points per batch           ...       63
Average number of grid points per atom       ...     4884
Initializing property integral containers    ... done (  0.0 sec)

SHARK setup successfully completed in   0.3 seconds

Maximum memory used throughout the entire STARTUP-calculation: 18.8 MB
Occupation numbers will be reassigned to an Aufbau configuration
             **** ENERGY FILE WAS UPDATED (Aspartic_Acid.en.tmp) ****
Finished Guess after   0.0 sec
Maximum memory used throughout the entire GUESS-calculation: 11.9 MB
----------------------------------------D-I-I-S--------------------------------------------
Iteration    Energy (Eh)           Delta-E    RMSDP     MaxDP     DIISErr   Damp  Time(sec)
-------------------------------------------------------------------------------------------
               ***  Starting incremental Fock matrix formation  ***
    1    -228.5492953452566667     0.00e+00  2.67e-04  1.71e-02  6.82e-03  0.700   0.3
    2    -228.5494381296965685    -1.43e-04  2.74e-04  1.82e-02  4.11e-03  0.700   0.3
                               ***Turning on AO-DIIS***
                              *** Initializing SOSCF ***
---------------------------------------S-O-S-C-F--------------------------------------
Iteration    Energy (Eh)           Delta-E    RMSDP     MaxDP     MaxGrad    Time(sec)
--------------------------------------------------------------------------------------
    3    -228.5495368447972737    -9.87e-05  8.33e-04  5.67e-02  2.46e-03     0.3
               *** Restarting incremental Fock matrix formation ***
    4    -228.5497580236046247    -2.21e-04  1.04e-04  2.93e-03  6.71e-04     0.3
    5    -228.5497336416338499     2.44e-05  7.76e-05  2.49e-03  1.45e-03     0.3
    6    -228.5497648985124783    -3.13e-05  8.37e-05  5.48e-03  1.47e-04     0.3
    7    -228.5497632917453643     1.61e-06  4.37e-05  2.47e-03  4.35e-04     0.3
    8    -228.5497651747422765    -1.88e-06  5.57e-05  3.73e-03  1.03e-04     0.3
    9    -228.5497646615742724     5.13e-07  3.98e-05  2.69e-03  1.61e-04     0.3
   10    -228.5497653286321906    -6.67e-07  1.39e-06  8.75e-05  3.81e-06     0.3
   11    -228.5497653290107110    -3.79e-10  9.46e-07  6.16e-05  5.42e-06     0.3
                 **** Energy Check signals convergence ****

               *****************************************************
               *                     SUCCESS                       *
               *           SCF CONVERGED AFTER  11 CYCLES          *
               *****************************************************

             **** ENERGY FILE WAS UPDATED (Aspartic_Acid.en.tmp) ****

----------------
TOTAL SCF ENERGY
----------------

Total Energy       :       -228.54976532901071 Eh           -6219.15529 eV

Components:
Nuclear Repulsion  :        110.95508761858071 Eh            3019.24143 eV
Electronic Energy  :       -339.50485294759142 Eh           -9238.39672 eV
One Electron Energy:       -539.56434431343860 Eh          -14682.29224 eV
Two Electron Energy:        200.05949136584718 Eh            5443.89552 eV

Virial components:
Potential Energy   :       -456.27780566719662 Eh          -12415.95031 eV
Kinetic Energy     :        227.72804033818588 Eh            6196.79502 eV
Virial Ratio       :          2.00360836105033

DFT components:
N(Alpha)           :       16.000000427339 electrons
N(Beta)            :       16.000000427339 electrons
N(Total)           :       32.000000854678 electrons
E(X)               :      -28.249376558620 Eh       
E(C)               :       -1.057753117221 Eh       
E(XC)              :      -29.307129675841 Eh       

---------------
SCF CONVERGENCE
---------------

  Last Energy change         ...    3.7852e-10  Tolerance :   1.0000e-08
  Last MAX-Density change    ...    6.1593e-05  Tolerance :   1.0000e-07
  Last RMS-Density change    ...    9.4589e-07  Tolerance :   5.0000e-09
  Last DIIS Error            ...    2.4628e-03  Tolerance :   5.0000e-07
  Last Orbital Gradient      ...    5.4230e-06  Tolerance :   1.0000e-05
  Last Orbital Rotation      ...    3.3211e-06  Tolerance :   1.0000e-05


Total SCF time: 0 days 0 hours 0 min 3 sec 
Finished LeanSCF after   3.3 sec

Maximum memory used throughout the entire LEANSCF-calculation: 13.0 MB

-------------------------   --------------------
FINAL SINGLE POINT ENERGY      -228.549765329011
-------------------------   --------------------

------------------------------------------------------------------------------
                         ORCA SCF GRADIENT CALCULATION
------------------------------------------------------------------------------

Nuc. rep. gradient        (SHARK) ... done (  0.0 sec)
HCore & Overlap gradient  (SHARK) ... done (  0.1 sec)
Split-RIJ-J gradient      (SHARK) ... done (  0.4 sec)
XC gradient                       ... done (  1.2 sec)

------------------
CARTESIAN GRADIENT
------------------

   1   H   :   -0.000776085   -0.000931302    0.001171156
   2   C   :    0.007157511   -0.002647855    0.002314806
   3   H   :   -0.000501023    0.000127400    0.001597973
   4   H   :    0.000154422    0.000019130   -0.000128153
   5   C   :   -0.006080971    0.003744895   -0.005591184
   6   O   :   -0.000544118   -0.000176844    0.000715115
   7   O   :    0.000590263   -0.000135424   -0.000079712

Difference to translation invariance:
           :   -0.0000000000   -0.0000000000   -0.0000000000

Difference to rotation invariance:
           :    0.0000097403    0.0000472066   -0.0000531358

Norm of the Cartesian gradient     ...    0.0123603278
RMS gradient                       ...    0.0026972447
MAX gradient                       ...    0.0071575114

-------
TIMINGS
-------

Total SCF gradient time     ....        1.664 sec

Densities                   ....       0.000 sec  (  0.0%)
One electron gradient       ....       0.051 sec  (  3.1%)
RI-J Coulomb gradient       ....       0.403 sec  ( 24.2%)
XC gradient                 ....       1.209 sec  ( 72.7%)

Maximum memory used throughout the entire SCFGRAD-calculation: 17.2 MB
------------------------------------------------------------------------------
                         ORCA GEOMETRY RELAXATION STEP
------------------------------------------------------------------------------

Reading the OPT-File                    .... done
Getting information on internals        .... done
Copying old internal coords+grads       .... done
Making the new internal coordinates     .... (2022 redundants) done
Validating the new internal coordinates .... (2022 redundants) done
Calculating the B-matrix                .... done
Calculating the G,G- and P matrices     .... done
Transforming gradient to internals      .... done
Projecting the internal gradient        .... done
Number of atoms                         ....   7
Number of internal coordinates          ....  20
Current Energy                          ....  -228.549765329 Eh
Current gradient norm                   ....     0.012360328 Eh/bohr
Maximum allowed component of the step   ....  0.300
Current trust radius                    ....  0.300
Updating the Hessian (BFGS)             .... done
Forming the augmented Hessian           .... done
Diagonalizing the augmented Hessian     .... done
Last element of RFO vector              ....  0.999264360
Lowest eigenvalues of augmented Hessian:
 -0.000319855  0.011272741  0.011273059  0.129193694  0.181756577
Length of the computed step             ....  0.038378442
The final length of the internal step   ....  0.038378442
Converting the step to Cartesian space:
 Initial RMS(Int)=    0.0085816805
Transforming coordinates:
 Iter   0:  RMS(Cart)=    0.0105250608 RMS(Int)=    0.0085802581
done
Storing new coordinates                 .... done
The predicted energy change is          ....    -0.000160163
Previously predicted energy change      ....    -0.001472620
Actually observed energy change         ....    -0.001780088
Ratio of predicted to observed change   ....     1.208789790
New trust radius                        ....     0.450000000

                                .--------------------.
          ----------------------|Geometry convergence|-------------------------
          Item                value                   Tolerance       Converged
          ---------------------------------------------------------------------
          Energy change      -0.0017800883            0.0000050000      NO
          RMS gradient        0.0020034274            0.0001000000      NO
          MAX gradient        0.0085296263            0.0003000000      NO
          RMS step            0.0085816805            0.0020000000      NO
          MAX step            0.0310698739            0.0040000000      NO
          ........................................................
          Max(Bonds)      0.0164      Max(Angles)    0.74
          Max(Dihed)        0.57      Max(Improp)    0.00
          ---------------------------------------------------------------------

The optimization has not yet converged - more geometry cycles are needed


    ---------------------------------------------------------------------------
                         Redundant Internal Coordinates
                            (Angstroem and degrees)

        Definition                    Value    dE/dq     Step     New-Value
    ----------------------------------------------------------------------------
     1. B(C   1,H   0)                1.1033 -0.000412  0.0011    1.1044   
     2. B(H   2,C   1)                1.1034 -0.000416  0.0011    1.1045   
     3. B(H   3,C   1)                1.1024 -0.000197  0.0006    1.1031   
     4. B(C   4,C   1)                1.5570 -0.008530  0.0164    1.5734   
     5. B(O   5,C   4)                1.2681  0.000860 -0.0005    1.2677   
     6. B(O   6,C   4)                1.2681  0.000573 -0.0003    1.2679   
     7. A(H   0,C   1,H   3)          108.58 -0.000367    0.26    108.84   
     8. A(H   0,C   1,C   4)          109.95 -0.000224   -0.01    109.95   
     9. A(H   0,C   1,H   2)          107.81  0.001521   -0.74    107.08   
    10. A(H   2,C   1,C   4)          109.96 -0.000239   -0.00    109.96   
    11. A(H   3,C   1,C   4)          111.85 -0.000273    0.22    112.06   
    12. A(H   2,C   1,H   3)          108.58 -0.000349    0.25    108.83   
    13. A(C   1,C   4,O   5)          116.09 -0.000677    0.15    116.24   
    14. A(O   5,C   4,O   6)          128.96  0.000088   -0.05    128.91   
    15. A(C   1,C   4,O   6)          114.95  0.000589   -0.10    114.85   
    16. D(O   5,C   4,C   1,H   2)    120.75 -0.000776    0.37    121.11   
    17. D(O   5,C   4,C   1,H   3)      0.03  0.000010   -0.09     -0.06   
    18. D(O   6,C   4,C   1,H   0)     59.29  0.000774   -0.34     58.94   
    19. D(O   6,C   4,C   1,H   2)    -59.27 -0.000808    0.57    -58.71   
    20. D(O   5,C   4,C   1,H   0)   -120.69  0.000807   -0.55   -121.24   
    ----------------------------------------------------------------------------

Geometry step timings:
Preparation and reading OPT file:      0.000 s (11.577 %)
Internal coordinates            :      0.000 s ( 3.373 %)
B/P matrices and projection     :      0.000 s (11.942 %)
Hessian update/contruction      :      0.000 s (12.215 %)
Making the step                 :      0.000 s ( 8.569 %)
Converting the step to Cartesian:      0.000 s ( 2.917 %)
Storing new data                :      0.000 s ( 2.826 %)
Checking convergence            :      0.000 s ( 1.641 %)
Final printing                  :      0.000 s (44.667 %)
Total time                      :      0.001 s

Time for energy+gradient        :      5.311 s
Time for complete geometry iter :      5.331 s

         *************************************************************
         *                GEOMETRY OPTIMIZATION CYCLE   3            *
         *************************************************************
---------------------------------
CARTESIAN COORDINATES (ANGSTROEM)
---------------------------------
  H     -0.879962   -0.216220   -1.384118
  C     -0.775049    0.365369   -0.451089
  H     -0.494494    1.393846   -0.739870
  H     -1.750765    0.393461    0.062708
  C      0.349778   -0.264920    0.450652
  O     -0.005122   -0.641673    1.607856
  O      1.495915   -0.321064   -0.088528

----------------------------
CARTESIAN COORDINATES (A.U.)
----------------------------
  NO LB      ZA    FRAG     MASS         X           Y           Z
   0 H     1.0000    0     1.008   -1.662887   -0.408597   -2.615604
   1 C     6.0000    0    12.011   -1.464630    0.690447   -0.852435
   2 H     1.0000    0     1.008   -0.934459    2.633988   -1.398153
   3 H     1.0000    0     1.008   -3.308466    0.743533    0.118500
   4 C     6.0000    0    12.011    0.660985   -0.500627    0.851609
   5 O     8.0000    0    15.999   -0.009680   -1.212586    3.038408
   6 O     8.0000    0    15.999    2.826869   -0.606724   -0.167294

--------------------------------
INTERNAL COORDINATES (ANGSTROEM)
--------------------------------
 H      0   0   0     0.000000000000     0.00000000     0.00000000
 C      1   0   0     1.104443686568     0.00000000     0.00000000
 H      2   1   0     1.104477642662   107.07365793     0.00000000
 H      2   1   3     1.103085413340   108.83701504   117.48543504
 C      2   1   3     1.573416056358   109.94543338   240.57740454
 O      5   2   1     1.267682378417   116.23639995   238.76140477
 O      5   2   1     1.267870854102   114.85161621    58.94037470

---------------------------
INTERNAL COORDINATES (A.U.)
---------------------------
 H      0   0   0     0.000000000000     0.00000000     0.00000000
 C      1   0   0     2.087096097951     0.00000000     0.00000000
 H      2   1   0     2.087160265669   107.07365793     0.00000000
 H      2   1   3     2.084529333537   108.83701504   117.48543504
 C      2   1   3     2.973325441231   109.94543338   240.57740454
 O      5   2   1     2.395572520006   116.23639995   238.76140477
 O      5   2   1     2.395928687435   114.85161621    58.94037470

------------------------------------------------------------------------------
                   ___                                                        
                  /   \      - P O W E R E D   B Y -                         
                 /     \                                                     
                 |  |  |   _    _      __       _____    __    __             
                 |  |  |  | |  | |    /  \     |  _  \  |  |  /  |          
                  \  \/   | |  | |   /    \    | | | |  |  | /  /          
                 / \  \   | |__| |  /  /\  \   | |_| |  |  |/  /          
                |  |  |   |  __  | /  /__\  \  |    /   |      \           
                |  |  |   | |  | | |   __   |  |    \   |  |\   \          
                \     /   | |  | | |  |  |  |  | |\  \  |  | \   \       
                 \___/    |_|  |_| |__|  |__|  |_| \__\ |__|  \__/        
                                                                              
                      - O R C A' S   B I G   F R I E N D -                    
                                      &                                       
                       - I N T E G R A L  F E E D E R -                       
                                                                              
 v1 FN, 2020, v2 2021, v3 2022-2024                                           
------------------------------------------------------------------------------


----------------------
SHARK INTEGRAL PACKAGE
----------------------

Number of atoms                             ...      7
Number of basis functions                   ...    142
Number of shells                            ...     56
Maximum angular momentum                    ...      3
Integral batch strategy                     ... SHARK/LIBINT Hybrid
RI-J (if used) integral strategy            ... SPLIT-RIJ (Revised 2003 algorithm where possible)
Printlevel                                  ...      1
Contraction scheme used                     ... SEGMENTED contraction
Prescreening option                         ... SCHWARTZ
   Thresh                                   ... 2.500e-11
   Tcut                                     ... 2.500e-12
   Tpresel                                  ... 2.500e-12 
Coulomb Range Separation                    ... NOT USED
Exchange Range Separation                   ... NOT USED
Multipole approximations                    ... NOT USED
Finite Nucleus Model                        ... NOT USED
CABS basis                                  ... NOT available
Auxiliary Coulomb fitting basis             ... AVAILABLE
   # of basis functions in Aux-J            ...    229
   # of shells in Aux-J                     ...     75
   Maximum angular momentum in Aux-J        ...      4
Auxiliary J/K fitting basis                 ... NOT available
Auxiliary Correlation fitting basis         ... NOT available
Auxiliary 'external' fitting basis          ... NOT available

Checking pre-screening integrals            ... done (  0.0 sec) Dimension = 56
Check shell pair data                       ... done (  0.0 sec)
Shell pair information
Shell pair cut-off parameter TPreSel        ...   2.5e-12
Total number of shell pairs                 ...      1596
Shell pairs after pre-screening             ...      1563
Total number of primitive shell pairs       ...      4948
Primitive shell pairs kept                  ...      3965
          la=0 lb=0:    411 shell pairs
          la=1 lb=0:    431 shell pairs
          la=1 lb=1:    120 shell pairs
          la=2 lb=0:    227 shell pairs
          la=2 lb=1:    120 shell pairs
          la=2 lb=2:     36 shell pairs
          la=3 lb=0:    116 shell pairs
          la=3 lb=1:     60 shell pairs
          la=3 lb=2:     32 shell pairs
          la=3 lb=3:     10 shell pairs

Calculating one electron integrals          ... done (  0.0 sec)
Calculating RI/J V-Matrix + Cholesky decomp.... done (  0.0 sec)
Calculating Nuclear repulsion               ... done (  0.0 sec) ENN=    110.631799165730 Eh

Diagonalization of the overlap matrix:
Smallest eigenvalue                        ... 7.314e-04
Time for diagonalization                   ...    0.002 sec
Threshold for overlap eigenvalues          ... 1.000e-07
Number of eigenvalues below threshold      ... 0
Time for construction of square roots      ...    0.000 sec
Total time needed                          ...    0.003 sec

-------------------
DFT GRID GENERATION
-------------------

General Integration Accuracy     IntAcc      ... 4.388
Radial Grid Type                 RadialGrid  ... OptM3 with GC (2021)
Angular Grid (max. ang.)         AngularGrid ... 4 (Lebedev-302)
[...]
Iteration    Energy (Eh)           Delta-E    RMSDP     MaxDP     MaxGrad    Time(sec)
--------------------------------------------------------------------------------------
    1    -228.5500091755672258     0.00e+00  6.27e-06  1.06e-04  1.54e-05     0.3
               *** Restarting incremental Fock matrix formation ***
    2    -228.5500092566532828    -8.11e-08  1.24e-05  4.76e-04  5.16e-05     0.4
    3    -228.5500090486101215     2.08e-07  9.61e-06  2.56e-04  1.90e-04     0.3
    4    -228.5500092846916971    -2.36e-07  3.11e-06  1.97e-04  8.58e-06     0.3
    5    -228.5500092814383777     3.25e-09  1.95e-06  1.22e-04  2.19e-05     0.3
                 **** Energy Check signals convergence ****

               *****************************************************
               *                     SUCCESS                       *
               *           SCF CONVERGED AFTER   5 CYCLES          *
               *****************************************************

             **** ENERGY FILE WAS UPDATED (Aspartic_Acid.en.tmp) ****

----------------
TOTAL SCF ENERGY
----------------

Total Energy       :       -228.55000928143838 Eh           -6219.16193 eV

Components:
Nuclear Repulsion  :        110.59026684082809 Eh            3009.31415 eV
Electronic Energy  :       -339.14027612226653 Eh           -9228.47608 eV
One Electron Energy:       -538.82206916253347 Eh          -14662.09391 eV
Two Electron Energy:        199.68179304026697 Eh            5433.61783 eV

Virial components:
Potential Energy   :       -456.25407413396874 Eh          -12415.30454 eV
Kinetic Energy     :        227.70406485253034 Eh            6196.14261 eV
Virial Ratio       :          2.00371510464451

DFT components:
N(Alpha)           :       16.000001067569 electrons
N(Beta)            :       16.000001067569 electrons
N(Total)           :       32.000002135138 electrons
E(X)               :      -28.243227160519 Eh       
E(C)               :       -1.057083321564 Eh       
E(XC)              :      -29.300310482083 Eh       

---------------
SCF CONVERGENCE
---------------

  Last Energy change         ...   -3.2533e-09  Tolerance :   1.0000e-08
  Last MAX-Density change    ...    1.2242e-04  Tolerance :   1.0000e-07
  Last RMS-Density change    ...    1.9503e-06  Tolerance :   5.0000e-09
  Last DIIS Error            ...    1.1900e-04  Tolerance :   5.0000e-07
  Last Orbital Gradient      ...    2.1883e-05  Tolerance :   1.0000e-05
  Last Orbital Rotation      ...    2.0310e-05  Tolerance :   1.0000e-05


----------------
ORBITAL ENERGIES
----------------

  NO   OCC          E(Eh)            E(eV) 
   0   2.0000     -18.486675      -503.0480 
   1   2.0000     -18.485009      -503.0027 
   2   2.0000      -9.759275      -265.5634 
   3   2.0000      -9.701862      -264.0011 
   4   2.0000      -0.712104       -19.3773 
   5   2.0000      -0.632857       -17.2209 
   6   2.0000      -0.449984       -12.2447 
   7   2.0000      -0.235641        -6.4121 
   8   2.0000      -0.188429        -5.1274 
   9   2.0000      -0.179646        -4.8884 
  10   2.0000      -0.157527        -4.2865 
  11   2.0000      -0.124899        -3.3987 
  12   2.0000      -0.105986        -2.8840 
  13   2.0000       0.001501         0.0408 
  14   2.0000       0.019710         0.5363 
  15   2.0000       0.028818         0.7842 
  16   0.0000       0.189977         5.1695 
  17   0.0000       0.217368         5.9149 
  18   0.0000       0.254843         6.9346 
  19   0.0000       0.273943         7.4544 
  20   0.0000       0.298225         8.1151 
  21   0.0000       0.326404         8.8819 
  22   0.0000       0.374091        10.1795 
  23   0.0000       0.377659        10.2766 
  24   0.0000       0.391497        10.6532 
  25   0.0000       0.430604        11.7173 
  26   0.0000       0.484392        13.1810 
*Only the first 10 virtual orbitals were printed.

                    ********************************
                    * MULLIKEN POPULATION ANALYSIS *
                    ********************************

-----------------------
MULLIKEN ATOMIC CHARGES
-----------------------
   0 H :    0.040331
   1 C :   -0.311161
   2 H :    0.040339
   3 H :    0.034412
   4 C :    0.192154
   5 O :   -0.496664
   6 O :   -0.499410
Sum of atomic charges:   -1.0000000

--------------------------------
MULLIKEN REDUCED ORBITAL CHARGES
--------------------------------
  0 H s       :     0.938909  s :     0.938909
      pz      :     0.009585  p :     0.020760
      px      :     0.004905
      py      :     0.006269

  1 C s       :     3.130395  s :     3.130395
      pz      :     1.051926  p :     3.127356
      px      :     1.048642
      py      :     1.026789
      dz2     :     0.013028  d :     0.050202
      dxz     :     0.008162
      dyz     :     0.008372
      dx2y2   :     0.015953
      dxy     :     0.004687
      f0      :     0.000290  f :     0.003207
      f+1     :     0.000438
      f-1     :     0.000603
      f+2     :     0.000865
      f-2     :     0.000357
      f+3     :     0.000416
      f-3     :     0.000237

  2 H s       :     0.938901  s :     0.938901
      pz      :     0.005596  p :     0.020760
      px      :     0.005220
      py      :     0.009944

  3 H s       :     0.944876  s :     0.944876
      pz      :     0.006022  p :     0.020713
      px      :     0.010179
      py      :     0.004512

  4 C s       :     3.017008  s :     3.017008
      pz      :     0.829512  p :     2.566890
      px      :     0.883719
      py      :     0.853659
      dz2     :     0.048755  d :     0.201458
      dxz     :     0.052146
      dyz     :     0.038314
      dx2y2   :     0.024546
      dxy     :     0.037696
      f0      :     0.003489  f :     0.022490
      f+1     :     0.006950
      f-1     :     0.002057
      f+2     :     0.003605
      f-2     :     0.002422
      f+3     :     0.001530
      f-3     :     0.002438

  5 O s       :     3.756970  s :     3.756970
      pz      :     1.417015  p :     4.711250
      px      :     1.756143
      py      :     1.538092
      dz2     :     0.009818  d :     0.026829
      dxz     :     0.006626
      dyz     :     0.007530
      dx2y2   :     0.001437
      dxy     :     0.001418
      f0      :     0.000497  f :     0.001616
      f+1     :     0.000379
      f-1     :     0.000340
      f+2     :     0.000168
      f-2     :     0.000183
      f+3     :     0.000028
      f-3     :     0.000022

  6 O s       :     3.754242  s :     3.754242
      pz      :     1.688909  p :     4.716823
      px      :     1.447570
      py      :     1.580344
      dz2     :     0.003856  d :     0.026731
      dxz     :     0.008001
      dyz     :     0.001635
      dx2y2   :     0.006631
      dxy     :     0.006608
      f0      :     0.000153  f :     0.001614
      f+1     :     0.000385
      f-1     :     0.000009
      f+2     :     0.000329
      f-2     :     0.000215
      f+3     :     0.000229
      f-3     :     0.000294



                     *******************************
                     * LOEWDIN POPULATION ANALYSIS *
                     *******************************

----------------------
LOEWDIN ATOMIC CHARGES
----------------------
   0 H :    0.098042
   1 C :   -0.355592
   2 H :    0.098049
   3 H :    0.090014
   4 C :   -0.715880
   5 O :   -0.105808
   6 O :   -0.108826

-------------------------------
LOEWDIN REDUCED ORBITAL CHARGES
-------------------------------
  0 H s       :     0.841012  s :     0.841012
      pz      :     0.028614  p :     0.060946
      px      :     0.013294
      py      :     0.019039

  1 C s       :     2.882709  s :     2.882709
      pz      :     1.079322  p :     3.222608
      px      :     1.071085
      py      :     1.072202
      dz2     :     0.043906  d :     0.229286
      dxz     :     0.046415
      dyz     :     0.044257
      dx2y2   :     0.068690
      dxy     :     0.026019
      f0      :     0.002940  f :     0.020988
      f+1     :     0.002384
      f-1     :     0.004066
      f+2     :     0.003272
      f-2     :     0.002568
      f+3     :     0.003299
      f-3     :     0.002459

  2 H s       :     0.841009  s :     0.841009
      pz      :     0.015702  p :     0.060942
      px      :     0.014895
      py      :     0.030344

  3 H s       :     0.848893  s :     0.848893
      pz      :     0.017786  p :     0.061093
      px      :     0.030288
      py      :     0.013019

  4 C s       :     2.798645  s :     2.798645
      pz      :     0.967136  p :     2.776304
      px      :     0.978011
      py      :     0.831157
      dz2     :     0.231978  d :     0.995261
      dxz     :     0.329629
      dyz     :     0.149780
      dx2y2   :     0.125709
      dxy     :     0.158166
      f0      :     0.023157  f :     0.145670
      f+1     :     0.042983
      f-1     :     0.016601
      f+2     :     0.021457
      f-2     :     0.013740
      f+3     :     0.012192
      f-3     :     0.015540

  5 O s       :     3.445666  s :     3.445666
      pz      :     1.483277  p :     4.595857
      px      :     1.650763
      py      :     1.461818
      dz2     :     0.022550  d :     0.059287
      dxz     :     0.016106
      dyz     :     0.015122
      dx2y2   :     0.002662
      dxy     :     0.002848
      f0      :     0.001375  f :     0.004997
      f+1     :     0.001324
      f-1     :     0.001143
      f+2     :     0.000502
      f-2     :     0.000556
      f+3     :     0.000048
      f-3     :     0.000049

  6 O s       :     3.445407  s :     3.445407
      pz      :     1.608633  p :     4.599092
      px      :     1.503543
      py      :     1.486916
      dz2     :     0.009063  d :     0.059318
      dxz     :     0.019296
      dyz     :     0.002798
      dx2y2   :     0.017136
      dxy     :     0.011026
      f0      :     0.000517  f :     0.005008
      f+1     :     0.001182
      f-1     :     0.000012
      f+2     :     0.001245
      f-2     :     0.000488
      f+3     :     0.000879
      f-3     :     0.000685



                      *****************************
                      * MAYER POPULATION ANALYSIS *
                      *****************************

  NA   - Mulliken gross atomic population
  ZA   - Total nuclear charge
  QA   - Mulliken gross atomic charge
  VA   - Mayer's total valence
  BVA  - Mayer's bonded valence
  FA   - Mayer's free valence

  ATOM       NA         ZA         QA         VA         BVA        FA
  0 H      0.9597     1.0000     0.0403     0.9989     0.9989     0.0000
  1 C      6.3112     6.0000    -0.3112     3.6081     3.6081     0.0000
  2 H      0.9597     1.0000     0.0403     0.9989     0.9989     0.0000
  3 H      0.9656     1.0000     0.0344     1.0160     1.0160     0.0000
  4 C      5.8078     6.0000     0.1922     4.6926     4.6926     0.0000
  5 O      8.4967     8.0000    -0.4967     1.9274     1.9274     0.0000
  6 O      8.4994     8.0000    -0.4994     1.9107     1.9107     0.0000

  Mayer bond orders larger than 0.100000
B(  0-H ,  1-C ) :   0.9603 B(  1-C ,  2-H ) :   0.9603 B(  1-C ,  3-H ) :   0.9483 
B(  1-C ,  4-C ) :   0.9003 B(  4-C ,  5-O ) :   1.9014 B(  4-C ,  6-O ) :   1.8790 


-------
TIMINGS
-------

Total SCF time: 0 days 0 hours 0 min 1 sec 

Total time                  ....       1.748 sec
Sum of individual times     ....       1.722 sec  ( 98.6%)

SCF preparation             ....       0.037 sec  (  2.1%)
Fock matrix formation       ....       1.652 sec  ( 94.5%)
  Startup                   ....       0.001 sec  (  0.1% of F)
  Split-RI-J                ....       0.376 sec  ( 22.8% of F)
  XC integration            ....       1.249 sec  ( 75.6% of F)
    Basis function eval.    ....       0.386 sec  ( 30.9% of XC)
    Density eval.           ....       0.283 sec  ( 22.6% of XC)
    XC-Functional eval.     ....       0.066 sec  (  5.3% of XC)
    XC-Potential eval.      ....       0.464 sec  ( 37.1% of XC)
Diagonalization             ....       0.000 sec  (  0.0%)
Density matrix formation    ....       0.003 sec  (  0.2%)
Total Energy calculation    ....       0.000 sec  (  0.0%)
Population analysis         ....       0.008 sec  (  0.5%)
Orbital Transformation      ....       0.009 sec  (  0.5%)
Orbital Orthonormalization  ....       0.000 sec  (  0.0%)
DIIS solution               ....       0.003 sec  (  0.2%)
SOSCF solution              ....       0.010 sec  (  0.6%)
Finished LeanSCF after   1.8 sec

Maximum memory used throughout the entire LEANSCF-calculation: 13.5 MB

-------------------------   --------------------
FINAL SINGLE POINT ENERGY      -228.550009281438
-------------------------   --------------------

                                *** OPTIMIZATION RUN DONE ***


------------------------------------------------------------------------------
                              ORCA PROPERTY CALCULATIONS
------------------------------------------------------------------------------

GBWName                                 ... Aspartic_Acid.gbw
Number of atoms                         ...      7
Number of basis functions               ...    142
Max core memory                         ...  16384 MB

Electric properties:
Dipole moment                           ... YES
Quadrupole moment                       ...  NO
Static polarizability (Dipole/Dipole)   ...  NO
Static polarizability (Dipole/Quad.)    ...  NO
Static polarizability (Quad./Quad.)     ...  NO
Static polarizability (Velocity)        ...  NO

Atomic electric properties:
Dipole moment                           ...  NO
Quadrupole moment                       ...  NO
Static polarizability                   ...  NO

Choice of electric origin               ... Center of mass
Position of electric origin             ...     0.498875    -0.404242     0.712529

General magnetic properties:
Magnetizability                         ...  NO

EPR properties:
g-Tensor (aka g-matrix)                 ...  NO
Zero-Field splitting spin-orbit         ...  NO
Zero-field splitting spin-spin          ...  NO
Hyperfine couplings                     ...  NO (   0 nuclei)
Quadrupole couplings                    ...  NO (   0 nuclei)
Contact density                         ...  NO (   0 nuclei)

NMR properties:
Chemical shifts                         ...  NO (   0 nuclei)
Spin-rotation constants                 ...  NO (   0 nuclei)
Spin-spin couplings                     ...  NO (   0 nuclei,    0 pairs)

Choice of magnetic origin               ... GIAO
Position of magnetic origin             ...     0.000000     0.000000     0.000000

Properties with geometric perturbations:
SCF Hessian                             ...  NO
IR spectrum                             ...  NO
VCD spectrum                            ...  NO
X-ray spectroscopy properties:
SCF XES/XAS/RIXS spectra                ...  NO


-------------
DIPOLE MOMENT
-------------

Method             : SCF
Type of density    : Electron Density
Multiplicity       :   1
Irrep              :   0
Energy             :  -228.5500092814383777 Eh
Relativity type    : 
Basis              : AO
                                X                 Y                 Z
Electronic contribution:      2.884093449      -1.636351115       2.368329065
Nuclear contribution   :     -3.660246325       2.069337213      -2.987295544
                        -----------------------------------------
Total Dipole Moment    :     -0.776152876       0.432986098      -0.618966479
                        -----------------------------------------
Magnitude (a.u.)       :      1.083055747
Magnitude (Debye)      :      2.752908932



--------------------
Rotational spectrum 
--------------------
 
Rotational constants in cm-1:             0.373928             0.325480             0.179890 
Rotational constants in MHz :         11210.081785          9757.656487          5392.955881 

Dipole components along the rotational axes: 
x,y,z [a.u.] :    -1.080501    -0.074345     0.000005 
x,y,z [Debye]:    -2.746415    -0.188971     0.000012 

 

Dipole moment calculation done in   0.0 sec 

Maximum memory used throughout the entire PROP-calculation: 9.5 MB

--------------------------------
SUGGESTED CITATIONS FOR THIS RUN
--------------------------------

Below you find a list of papers that are relevant to this ORCA run
We neither can nor want to force you to cite these papers, but we appreciate if you do
You receive ORCA, which is the product of decades of hard work by many enthusiastic individuals, for free
The only thing we kindly ask in return is that you cite our papers,
We deeply appreciate it, if you show your appreciation for ORCA by not just citing the generic ORCA reference.

Please note that relegating all ORCA citations to the supporting information does *not* help us.
SI sections are not indexed - citations you put there will not count into any citation statistics
But we need these citations in order to attract the funding resources that allow us to do what we are doing

Therefore, if you are a happy ORCA user, please consider citing a few of the papers listed below in the main body of your paper

In addition to the list printed below, the program has created the file Aspartic_Acid.bibtex that contains the list in bibtex format
You can import this file easily into all common literature databanks and citation aid programs


List of essential papers. We consider these as the minimum necessary citations

  1. Neese,F.
     Software update: the ORCA program system, version 5.0
     WIRES Comput. Molec. Sci., 2022 12(1)e1606
     doi.org/10.1002/wcms.1606

List of papers to cite with high priority. The work reported in these papers was absolutely
necessary for this run to complete.
Our perspective: the developers of density functionals and basis sets usually get cited in chemistry papers
Good! But without the algorithms to do something with them, the functionals or basis sets would not do anything.
Hence, in our opinion, the algorithm design and method developments papers are equally worthy of getting cited

  1. Neese,F.
     An improvement of the resolution of the identity approximation for the formation of the Coulomb matrix
     J. Comp. Chem., 2003 24(14)1740-1747
     doi.org/10.1002/jcc.10318
  2. Neese,F.
     The SHARK Integral Generation and Digestion System
     J. Comp. Chem., 2022  1-16
     doi.org/10.1002/jcc.26942

List of suggested additional citations. These are papers that are important in the 'surrounding' of 
of this run, or papers that preceded the highly important papers. If you like your results we are grateful for a citation.

  1. Neese,F.
     The ORCA program system
     WIRES Comput. Molec. Sci., 2012 2(1)73-78
     doi.org/10.1002/wcms.81
  2. Neese,F.
     Software update: the ORCA program system, version 4.0
     WIRES Comput. Molec. Sci., 2018 8(1)1-6
     doi.org/10.1002/wcms.1327
  3. Neese,F.; Wennmohs,F.; Becker,U.; Riplinger,C.
     The ORCA quantum chemistry program package
     J. Chem. Phys., 2020 152 Art. No. L224108
     doi.org/10.1063/5.0004608

List of optional additional citations

  1. Neese,F.
     Approximate second-order SCF convergence for spin unrestricted wavefunctions
     Chem. Phys. Lett., 2000 325(1-3)93-98
     doi.org/10.1016/s0009-2614(00)00662-x

Timings for individual modules:

Sum of individual times          ...       37.992 sec (=   0.633 min)
Startup calculation              ...        2.256 sec (=   0.038 min)   5.9 %
SCF iterations                   ...       23.543 sec (=   0.392 min)  62.0 %
Property calculations            ...        0.062 sec (=   0.001 min)   0.2 %
SCF Gradient evaluation          ...       12.118 sec (=   0.202 min)  31.9 %
Geometry relaxation              ...        0.014 sec (=   0.000 min)   0.0 %
                             ****ORCA TERMINATED NORMALLY****
TOTAL RUN TIME: 0 days 0 hours 0 minutes 38 seconds 212 msec
